 Gaussian 16, Revision B.01,
 Gaussian 16:  ES64L-G16RevB.01 20-Dec-2017

 -------------------------------------------
 #N B2PLYP/cc-pvtz scf=(xqc,fermi) FCHK freq
 -------------------------------------------

 ---
 O2H
 ---
 Symbolic Z-matrix:
 Charge =  0 Multiplicity = 2

                         Standard orientation:
 ---------------------------------------------------------------------
 Center     Atomic      Atomic             Coordinates (Angstroms)
 Number     Number       Type             X           Y           Z
 ---------------------------------------------------------------------
      1          8           0        0.031435    1.475930   -0.000000
      2          8           0        0.031435   -1.403492   -0.000000
      3          1           0       -0.502966   -0.579499    0.000000
 ---------------------------------------------------------------------

 SCF Done:  E(UB2PLYP) =  -150.625832072     A.U. after   32 cycles
 E2(B2PLYP) =    -0.1092307371D+00 E(B2PLYP) =    -0.15073506280905D+03
 E2(B2PLYP) =    -0.1092307371D+00 E(B2PLYP) =    -0.15073506280905D+03

 The electronic state is 2-A'.
 Alpha  occ. eigenvalues --  -19.87682 -19.78725  -1.15799  -1.09804  -0.55892
 Alpha  occ. eigenvalues --   -0.55501  -0.50524  -0.47172  -0.42237
 Alpha virt. eigenvalues --   -0.10904   0.10875   0.42328   0.54264   0.57340
 Alpha virt. eigenvalues --    0.61196   0.63743   0.66191   0.70193   0.75858
 Alpha virt. eigenvalues --    0.78273   0.94253   1.11793   1.28276   1.48567

  Beta  occ. eigenvalues --  -19.87695 -19.75723  -1.09958  -1.05383  -0.56089
  Beta  occ. eigenvalues --   -0.52524  -0.46828  -0.39126
  Beta virt. eigenvalues --   -0.11079  -0.04467   0.11526   0.43008   0.54293
  Beta virt. eigenvalues --    0.60137   0.63208   0.65748   0.68497   0.73300
  Beta virt. eigenvalues --    0.75784   0.80689   0.95387   1.12737   1.28904

 Mulliken charges and spin densities:
               1          2
     1  O    0.013775   0.003126
     2  O   -0.266676   1.017534
     3  H    0.252901  -0.020660
 Sum of Mulliken charges =   0.00000   1.00000

 Dipole moment (field-independent basis, Debye):
    X=             -0.9105    Y=              1.6836    Z=              0.0000  Tot=              1.9140
 Quadrupole moment (field-independent basis, Debye-Ang):
   XX=            -11.0151   YY=            -14.2477   ZZ=            -10.0119
   XY=             -0.2274   XZ=              0.0000   YZ=              0.0000

  Exact polarizability:   7.679  -0.774  13.031   0.000  -0.000   6.065
 Approx polarizability:   7.536  -1.318  10.371  -0.000   0.000   6.471

                      1                      2                      3
                     A'                     A'                     A'
 Frequencies --    123.8500               403.5732              3599.1757
 Red. masses --     10.7339                 1.0514                 1.0670
 Frc consts  --      0.0970                 0.1009                 8.1436
 IR Inten    --      9.6317               198.5084                41.6072

 - Thermochemistry -
 -------------------
 Temperature   298.150 Kelvin.  Pressure   1.00000 Atm.
 Atom     1 has atomic number  8 and mass  15.99491

 Molecular mass:    32.99765 amu.
 Principal axes and moments of inertia in atomic units:
                           1         2         3
     Eigenvalues --     0.99087 238.11664 239.10751
           X            0.00484   0.99999   0.00000
           Y            0.99999  -0.00484   0.00000
           Z           -0.00000   0.00000   1.00000
 This molecule is an asymmetric top.
 Rotational symmetry number  1.
 Rotational temperatures (Kelvin)     87.41181     0.36375     0.36224
 Rotational constants (GHZ):        1821.36650     7.57923     7.54782
 Zero-point vibrational energy      24682.5 (Joules/Mol)
                                    5.89927 (Kcal/Mol)
 Warning -- explicit consideration of   2 degrees of freedom as
           vibrations may cause significant error
 Vibrational temperatures:    178.19   580.65  5178.41
          (Kelvin)

 Zero-point correction=                           0.009401 (Hartree/Particle)
 Thermal correction to Energy=                    0.013230
 Thermal correction to Enthalpy=                  0.014174
 Thermal correction to Gibbs Free Energy=        -0.014549
 Sum of electronic and zero-point Energies=           -150.725662
 Sum of electronic and thermal Energies=              -150.721833
 Sum of electronic and thermal Enthalpies=            -150.720889
 Sum of electronic and thermal Free Energies=         -150.749612

                     E (Thermal)             CV                S
                      KCal/Mol        Cal/Mol-Kelvin    Cal/Mol-Kelvin
 Total                    8.302              9.353             60.453
 Electronic               0.000              0.000              1.377
 Translational            0.889              2.981             36.413
 Rotational               0.889              2.981             18.673
 Vibrational              6.524              3.392              3.989
 Vibration     1          0.610              1.929              3.039
 Vibration     2          0.769              1.462              0.950

 Normal termination of Gaussian 16 at Wed Dec  2 16:34:02 2020.
